30
	Energy:      35.8186160
C         -0.86143        1.34839        0.10310
C          0.48088        1.73590        0.11662
C          1.51069        0.77879        0.02368
C          1.15469       -0.58407       -0.07592
C         -0.19227       -0.96566       -0.08626
C         -1.19822       -0.00126        0.00109
H         -2.23897       -0.29909       -0.00988
H         -1.64081        2.09683        0.17087
H          0.71667        2.78979        0.19677
H          1.90200       -1.36116       -0.14734
H         -0.45771       -2.01210       -0.16382
C          2.95053        1.27372        0.03329
C          4.03171        0.18323       -0.04277
O          3.13651        2.15109       -1.04971
H          3.11875        1.81049        0.99841
H          2.95446        3.07051       -0.72155
O          5.27686        0.78491       -0.02051
H          3.91939       -0.39011       -0.98971
H          3.93382       -0.50298        0.82712
C          6.48233        0.16208       -0.07132
C          7.63575        0.95885       -0.09756
C          8.90427        0.37399       -0.15166
C          6.61892       -1.24154       -0.09954
C          7.89149       -1.82311       -0.15169
C          9.03256       -1.01636       -0.17813
H          5.75231       -1.88843       -0.08026
H          7.54780        2.03796       -0.07795
H          9.78784        0.99927       -0.17309
H          7.99475       -2.90045       -0.17187
H         10.01581       -1.46761       -0.21924
