30
Lattice="24.25478 0.0 0.0 0.0 17.970959999999998 0.0 0.0 0.0 14.04812" Properties=species:S:1:pos:R:3:forces:R:3 Energy:=T 35.8186160=T energy=-3262.2187115279 stress="0.00028268606739485 -9.6539889938392e-06 5.3581597965754e-06 -9.6539889938392e-06 0.00026704809209702 -6.6686304605109e-06 5.3581597965754e-06 -6.6686304605109e-06 0.00031265874621013" free_energy=-3262.2187115279 pbc="T T T"
C        7.36286832      10.17347656       7.20860217      -0.00043896      -0.00101629      -0.00149978
C        8.69176080      10.60238751       7.19677285      -0.00116087       0.00097423      -0.00011353
C        9.74566487       9.67998215       7.07404523      -0.00000164       0.00203905       0.00075250
C        9.43705910       8.31734519       6.95667060       0.00116619       0.00228767       0.00058038
C        8.10396000       7.88384607       6.97242582       0.00219111      -0.00046531      -0.00051530
C        7.06434578       8.80903578       7.09948849       0.00052289      -0.00123127      -0.00116427
H        6.02830557       8.47155336       7.11334962       0.00116728      -0.00232112      -0.00125712
H        6.55904924      10.90257827       7.30654330      -0.00189064      -0.00137498      -0.00247499
H        8.92764734      11.66388238       7.27065814      -0.00200669       0.00107336       0.00009310
H       10.22976695       7.57778736       6.84846457       0.00314513       0.00359461       0.00094216
H        7.88080709       6.82132951       6.88227783       0.00354928      -0.00065119      -0.00042765
C       11.16256661      10.22429520       7.08227866       0.00009190       0.00066887       0.00374053
C       12.25419794       9.15961027       7.00016682      -0.00188719      -0.00121522       0.00544786
O       11.27618582      11.15603129       5.98490495       0.00714504       0.00070506       0.00404490
H       11.31320657      10.76594551       8.03442583      -0.00071655       0.00172305       0.00340686
H       12.17560850      11.52901774       6.03623175       0.01692710      -0.02224103      -0.00720978
O       13.50103989       9.87559980       7.11084140      -0.00138672      -0.00001655      -0.00175263
H       12.21005240       8.62853361       6.03480153      -0.00512812      -0.00603247       0.00779654
H       12.15640552       8.43527904       7.82668287       0.00333185       0.00089599       0.00751568
C       14.67091243       9.14955843       7.02028305      -0.00089701       0.00089679      -0.00245568
C       15.85556216       9.90643827       7.01597028      -0.00178816       0.00003238      -0.00109877
C       17.09085409       9.26377839       6.93649398      -0.00066475       0.00142249       0.00060824
C       14.73237846       7.75049313       6.94680234      -0.00291410       0.00007244      -0.00446566
C       15.98302295       7.11980681       6.86924518      -0.00136313       0.00156457      -0.00290206
C       17.16396605       7.86531650       6.86205265      -0.00246836       0.00053485       0.00020122
H       13.82515902       7.15096477       6.95256857      -0.00100242       0.00211331      -0.00699790
H       15.78322816      10.99135600       7.07448794      -0.00123846       0.00166561      -0.00013455
H       18.00350621       9.85927820       6.93037338      -0.00201898      -0.00019651       0.00320255
H       16.02475897       6.03241069       6.81445784      -0.00204684       0.00042544      -0.00373992
H       18.12994382       7.36672901       6.79852637      -0.00129389       0.00041059       0.00248747
