
  **** **** ******  **  PROGRAM STARTED AT               2022-08-01 16:50:32.013
 ***** ** ***  *** **   PROGRAM STARTED ON                                pop-os
 **    ****   ******    PROGRAM STARTED BY                         woodrowwilson
 ***** **    ** ** **   PROGRAM PROCESS ID                                 48542
  **** **  *******  **  PROGRAM STARTED IN /home/woodrowwilson/Documents/Project
                                           s/MSELProjects/simulations_tmc_uc-eos
                                           _beta

 CP2K| version string:                                          CP2K version 9.1
 CP2K| source code revision number:                                  git:d8d7100
 CP2K| cp2kflags: omp libint fftw3 libxc xsmm plumed2 spglib libvori libbqb     
 CP2K| is freely available from                            https://www.cp2k.org/
 CP2K| Program compiled at                       Wed May 25 08:10:51 PM CDT 2022
 CP2K| Program compiled on                                                pop-os
 CP2K| Program compiled for                                PopOS-x86-64-gfortran
 CP2K| Data directory path            /home/woodrowwilson/Programs/cp2k/9.1/data
 CP2K| Input file name                           simulations_tmc_uc-eos_beta.inp

 GLOBAL| Force Environment number                                              1
 GLOBAL| Basis set file name                                        BASIS_MOLOPT
 GLOBAL| Potential file name                                           POTENTIAL
 GLOBAL| MM Potential file name                                     MM_POTENTIAL
 GLOBAL| Coordinate file name                                      __STD_INPUT__
 GLOBAL| Method name                                                        CP2K
 GLOBAL| Project name                                simulations_tmc_uc-eos_beta
 GLOBAL| Run type                                                   ENERGY_FORCE
 GLOBAL| FFT library                                                       FFTW3
 GLOBAL| Diagonalization library                                       ScaLAPACK
 GLOBAL| Orthonormality check for eigenvectors                          DISABLED
 GLOBAL| Matrix multiplication library                                 ScaLAPACK
 GLOBAL| All-to-all communication in single precision                          F
 GLOBAL| FFTs using library dependent lengths                                  F
 GLOBAL| Grid backend                                                       AUTO
 GLOBAL| Global print level                                                  LOW
 GLOBAL| MPI I/O enabled                                                       T
 GLOBAL| Total number of message passing processes                             1
 GLOBAL| Number of threads for this process                                    8
 GLOBAL| This output is from process                                           0
 GLOBAL| Stack size for threads created by OpenMP (OMP_STACKSIZE)        default
 GLOBAL| CPU model name                 Intel(R) Core(TM) i7-9750H CPU @ 2.60GHz
 GLOBAL| CPUID                                                              1002

 MEMORY| system memory details [Kb]
 MEMORY|                        rank 0           min           max       average
 MEMORY| MemTotal             32580268      32580268      32580268      32580268
 MEMORY| MemFree              20288392      20288392      20288392      20288392
 MEMORY| Buffers                273968        273968        273968        273968
 MEMORY| Cached                8162568       8162568       8162568       8162568
 MEMORY| Slab                   484516        484516        484516        484516
 MEMORY| SReclaimable           336284        336284        336284        336284
 MEMORY| MemLikelyFree        29061212      29061212      29061212      29061212


 GENERATE|  Preliminary Number of Bonds generated:                             0
 GENERATE|  Achieved consistency in connectivity generation.

 *******************************************************************************
 *******************************************************************************
 **                                                                           **
 **     #####                         ##              ##                      **
 **    ##   ##            ##          ##              ##                      **
 **   ##     ##                       ##            ######                    **
 **   ##     ##  ##   ##  ##   #####  ##  ##   ####   ##    #####    #####    **
 **   ##     ##  ##   ##  ##  ##      ## ##   ##      ##   ##   ##  ##   ##   **
 **   ##  ## ##  ##   ##  ##  ##      ####     ###    ##   ######   ######    **
 **    ##  ###   ##   ##  ##  ##      ## ##      ##   ##   ##       ##        **
 **     #######   #####   ##   #####  ##  ##  ####    ##    #####   ##        **
 **           ##                                                    ##        **
 **                                                                           **
 **                                                ... make the atoms dance   **
 **                                                                           **
 **            Copyright (C) by CP2K developers group (2000-2021)             **
 **                      J. Chem. Phys. 152, 194103 (2020)                    **
 **                                                                           **
 *******************************************************************************


 TOTAL NUMBERS AND MAXIMUM NUMBERS

  Total number of            - Atomic kinds:                                   2
                             - Atoms:                                          3
                             - Shell sets:                                     3
                             - Shells:                                        21
                             - Primitive Cartesian functions:                 19
                             - Cartesian basis functions:                     76
                             - Spherical basis functions:                     65

  Maximum angular momentum of- Orbital basis functions:                        3
                             - Local part of the GTH pseudopotential:          2
                             - Non-local part of the GTH pseudopotential:      4


 SCF PARAMETERS         Density guess:                                    ATOMIC
                        --------------------------------------------------------
                        max_scf:                                              50
                        max_scf_history:                                       0
                        max_diis:                                              4
                        --------------------------------------------------------
                        eps_scf:                                        1.00E-05
                        eps_scf_history:                                0.00E+00
                        eps_diis:                                       1.00E-01
                        eps_eigval:                                     1.00E-05
                        --------------------------------------------------------
                        level_shift [a.u.]:                                 0.00
                        added MOs                                        10    0
                        --------------------------------------------------------
                        Mixing method:                            BROYDEN_MIXING
                                                charge density mixing in g-space
                        --------------------------------------------------------
                        Smear method:                                FERMI_DIRAC
                        Electronic temperature [K]:                        300.0
                        Electronic temperature [a.u.]:                  9.50E-04
                        Accuracy threshold:                             1.00E-10
                        --------------------------------------------------------
                        Outer loop SCF in use 
                        No variables optimised in outer loop
                        eps_scf                                         1.00E-05
                        max_scf                                               50
                        No outer loop optimization
                        step_size                                       5.00E-01

 Number of electrons:                                                         32
 Number of occupied orbitals:                                                 16
 Number of molecular orbitals:                                                26

 Number of orbital functions:                                                 65
 Number of independent orbital functions:                                     65

 Extrapolation method: initial_guess


 SCF WAVEFUNCTION OPTIMIZATION

  Step     Update method      Time    Convergence         Total energy    Change
  ------------------------------------------------------------------------------
     1 NoMix/Diag. 0.40E+00    5.6     2.22942297      -143.2658183211 -1.43E+02
     2 Broy./Diag. 0.40E+00    8.9     0.32646858      -143.9779052019 -7.12E-01
     3 Broy./Diag. 0.40E+00    8.7     0.05311808      -142.4936778413  1.48E+00
     4 Broy./Diag. 0.40E+00    8.7     0.01470915      -142.2422605413  2.51E-01
     5 Broy./Diag. 0.40E+00   10.0     0.00302252      -142.0912454338  1.51E-01
     6 Broy./Diag. 0.40E+00   14.8     0.00077862      -142.1097080291 -1.85E-02
     7 Broy./Diag. 0.40E+00   10.4     0.00024508      -142.1186115603 -8.90E-03
     8 Broy./Diag. 0.40E+00   10.9     0.00000464      -142.1213552681 -2.74E-03

  *** SCF run converged in     8 steps ***


  Electronic density on regular grids:        -31.9999999995        0.0000000005
  Core density on regular grids:               31.9999999983       -0.0000000017
  Total charge density on r-space grids:       -0.0000000013
  Total charge density g-space grids:          -0.0000000013

  Overlap energy of the core charge distribution:               0.00000000029936
  Self energy of the core charge distribution:               -270.50049252062627
  Core Hamiltonian energy:                                     62.88848560239929
  Hartree energy:                                              83.26577177987545
  Exchange-correlation energy:                                -17.72867078792381
  Dispersion energy:                                           -0.04630543545622
  Electronic entropic energy:                                  -0.00014390316094
  Fermi energy:                                                 0.71092060730163

  Total energy:                                              -142.12135526813967

  outer SCF iter =    1 RMS gradient =   0.46E-05 energy =       -142.1213552681
  outer SCF loop converged in   1 iterations or    8 steps


 ENERGY| Total FORCE_EVAL ( QS ) energy [a.u.]:             -142.121178120992823

 STRESS| Analytical stress tensor [GPa]
 STRESS|                        x                   y                   z
 STRESS|      x        4.49024091042E+01   3.20193093987E+00   1.98402559126E-01
 STRESS|      y        3.20193093987E+00   4.85996689518E+01  -1.14550272728E-01
 STRESS|      z        1.98402559126E-01  -1.14550272728E-01   4.79648263151E+01
 STRESS| 1/3 Trace                                             4.71556347904E+01
 STRESS| Determinant                                           1.04176468398E+05

 STRESS| Eigenvectors and eigenvalues of the analytical stress tensor [GPa]
 STRESS|                        1                   2                   3
 STRESS| Eigenvalues   4.30431065066E+01   4.79754903396E+01   5.04483075250E+01
 STRESS|      x           0.865088361648      0.040268641506      0.500000563052
 STRESS|      y          -0.499459792016     -0.023248208810      0.866025078705
 STRESS|      z          -0.046497770925      0.998918393713     -0.000000812441

 Number of electrons:                                                         32
 Number of occupied orbitals:                                                 16
 Number of molecular orbitals:                                                26

 Number of orbital functions:                                                 65
 Number of independent orbital functions:                                     65

 Extrapolation method: initial_guess


 SCF WAVEFUNCTION OPTIMIZATION

  Step     Update method      Time    Convergence         Total energy    Change
  ------------------------------------------------------------------------------
     1 NoMix/Diag. 0.40E+00    7.4     1.00762419      -142.9924548637 -1.43E+02
     2 Broy./Diag. 0.40E+00   14.1     0.33024641      -144.2334756994 -1.24E+00
     3 Broy./Diag. 0.40E+00    9.3     0.06360927      -142.5492673011  1.68E+00
     4 Broy./Diag. 0.40E+00   10.5     0.01403414      -142.2930281385  2.56E-01
     5 Broy./Diag. 0.40E+00   10.9     0.00320148      -142.1166145276  1.76E-01
     6 Broy./Diag. 0.40E+00   11.0     0.00095587      -142.1404484364 -2.38E-02
     7 Broy./Diag. 0.40E+00   11.1     0.00025081      -142.1487569855 -8.31E-03
     8 Broy./Diag. 0.40E+00   11.1     0.00000667      -142.1521156479 -3.36E-03

  *** SCF run converged in     8 steps ***


  Electronic density on regular grids:        -31.9999999996        0.0000000004
  Core density on regular grids:               31.9999999984       -0.0000000016
  Total charge density on r-space grids:       -0.0000000012
  Total charge density g-space grids:          -0.0000000012

  Overlap energy of the core charge distribution:               0.00000000007817
  Self energy of the core charge distribution:               -270.50049252062627
  Core Hamiltonian energy:                                     62.38083023035797
  Hartree energy:                                              83.60448028961301
  Exchange-correlation energy:                                -17.59428149176947
  Dispersion energy:                                           -0.04249706576632
  Electronic entropic energy:                                  -0.00015508789760
  Fermi energy:                                                 0.64969180444419

  Total energy:                                              -142.15211564792324

  outer SCF iter =    1 RMS gradient =   0.67E-05 energy =       -142.1521156479
  outer SCF loop converged in   1 iterations or    8 steps


 ENERGY| Total FORCE_EVAL ( QS ) energy [a.u.]:             -142.151933803778519

 STRESS| Analytical stress tensor [GPa]
 STRESS|                        x                   y                   z
 STRESS|      x        1.12686622971E+01   2.54072242463E+00   1.16864485511E-01
 STRESS|      y        2.54072242463E+00   1.42024262905E+01  -6.74694996708E-02
 STRESS|      z        1.16864485511E-01  -6.74694996708E-02   1.29889439897E+01
 STRESS| 1/3 Trace                                             1.28200108591E+01
 STRESS| Determinant                                           1.99464858820E+03

 STRESS| Eigenvectors and eigenvalues of the analytical stress tensor [GPa]
 STRESS|                        1                   2                   3
 STRESS| Eigenvalues   9.79606998114E+00   1.29946471403E+01   1.56693154559E+01
 STRESS|      x           0.865252640773      0.036568314258      0.500000626027
 STRESS|      y          -0.499554641924     -0.021113639203      0.866025042347
 STRESS|      z          -0.042225908723      0.999108088563      0.000000760942

 Number of electrons:                                                         32
 Number of occupied orbitals:                                                 16
 Number of molecular orbitals:                                                26

 Number of orbital functions:                                                 65
 Number of independent orbital functions:                                     65

 Extrapolation method: initial_guess


 SCF WAVEFUNCTION OPTIMIZATION

  Step     Update method      Time    Convergence         Total energy    Change
  ------------------------------------------------------------------------------
     1 Broy./Diag. 0.40E+00    6.7     0.99462509      -142.7402573315 -1.43E+02
     2 Broy./Diag. 0.40E+00    8.9     0.33504814      -144.4552379873 -1.71E+00
     3 Broy./Diag. 0.40E+00    8.7     0.07526791      -142.5650651566  1.89E+00
     4 Broy./Diag. 0.40E+00    9.5     0.01319236      -142.3147937715  2.50E-01
     5 Broy./Diag. 0.40E+00    9.0     0.00342234      -142.1113118672  2.03E-01
     6 Broy./Diag. 0.40E+00    8.7     0.00115208      -142.1404362880 -2.91E-02
     7 Broy./Diag. 0.40E+00    8.4     0.00026080      -142.1474713964 -7.04E-03
     8 Broy./Diag. 0.40E+00    9.8     0.00000930      -142.1516790128 -4.21E-03

  *** SCF run converged in     8 steps ***


  Electronic density on regular grids:        -31.9999999997        0.0000000003
  Core density on regular grids:               31.9999999983       -0.0000000017
  Total charge density on r-space grids:       -0.0000000014
  Total charge density g-space grids:          -0.0000000014

  Overlap energy of the core charge distribution:               0.00000000001977
  Self energy of the core charge distribution:               -270.50049252062627
  Core Hamiltonian energy:                                     61.94268767711780
  Hartree energy:                                              83.90636739357353
  Exchange-correlation energy:                                -17.46105529329210
  Dispersion energy:                                           -0.03901953324328
  Electronic entropic energy:                                  -0.00016673593128
  Fermi energy:                                                 0.59353876711687

  Total energy:                                              -142.15167901277880

  outer SCF iter =    1 RMS gradient =   0.93E-05 energy =       -142.1516790128
  outer SCF loop converged in   1 iterations or    8 steps


 ENERGY| Total FORCE_EVAL ( QS ) energy [a.u.]:             -142.151490046355576

 STRESS| Analytical stress tensor [GPa]
 STRESS|                        x                   y                   z
 STRESS|      x       -1.37582504629E+01   2.38416188140E+00   8.97426649733E-02
 STRESS|      y        2.38416188140E+00  -1.10052569503E+01  -5.18097567833E-02
 STRESS|      z        8.97426649733E-02  -5.18097567833E-02  -1.28333087802E+01
 STRESS| 1/3 Trace                                            -1.25322720644E+01
 STRESS| Determinant                                          -1.87007998352E+03

 STRESS| Eigenvectors and eigenvalues of the analytical stress tensor [GPa]
 STRESS|                        1                   2                   3
 STRESS| Eigenvalues  -1.51394031968E+01  -1.28286524241E+01  -9.62876057237E+00
 STRESS|      x           0.865152438030      0.038875175562      0.499999979695
 STRESS|      y          -0.499495921225     -0.022445587000      0.866025415507
 STRESS|      z          -0.044889683113      0.998991950092      0.000000862686

 Number of electrons:                                                         32
 Number of occupied orbitals:                                                 16
 Number of molecular orbitals:                                                26

 Number of orbital functions:                                                 65
 Number of independent orbital functions:                                     65

 Extrapolation method: initial_guess


 SCF WAVEFUNCTION OPTIMIZATION

  Step     Update method      Time    Convergence         Total energy    Change
  ------------------------------------------------------------------------------
     1 Broy./Diag. 0.40E+00    5.8     0.97977894      -142.5181607594 -1.43E+02
     2 Broy./Diag. 0.40E+00    7.9     0.34180974      -144.6470744595 -2.13E+00
     3 Broy./Diag. 0.40E+00    7.7     0.08822304      -142.5502258427  2.10E+00
     4 Broy./Diag. 0.40E+00    7.9     0.01320487      -142.3233129915  2.27E-01
     5 Broy./Diag. 0.40E+00    7.7     0.00374881      -142.0921708329  2.31E-01
     6 Broy./Diag. 0.40E+00    7.5     0.00137383      -142.1265225222 -3.44E-02
     7 Broy./Diag. 0.40E+00    8.5     0.00027308      -142.1316186273 -5.10E-03
     8 Broy./Diag. 0.40E+00    8.0     0.00001269      -142.1369424449 -5.32E-03
     9 Broy./Diag. 0.40E+00    7.4     0.00001031      -142.1367691696  1.73E-04
    10 Broy./Diag. 0.40E+00    7.5     0.00001093      -142.1367661739  3.00E-06
    11 Broy./Diag. 0.40E+00    7.4     0.00000775      -142.1367555960  1.06E-05

  *** SCF run converged in    11 steps ***


  Electronic density on regular grids:        -31.9999999997        0.0000000003
  Core density on regular grids:               31.9999999983       -0.0000000017
  Total charge density on r-space grids:       -0.0000000013
  Total charge density g-space grids:          -0.0000000013

  Overlap energy of the core charge distribution:               0.00000000000484
  Self energy of the core charge distribution:               -270.50049252062627
  Core Hamiltonian energy:                                     61.57678677261161
  Hartree energy:                                              84.16490543195833
  Exchange-correlation energy:                                -17.34197859636958
  Dispersion energy:                                           -0.03579682346389
  Electronic entropic energy:                                  -0.00017986011465
  Fermi energy:                                                 0.54192801407376

  Total energy:                                              -142.13675559597033

  outer SCF iter =    1 RMS gradient =   0.78E-05 energy =       -142.1367555960
  outer SCF loop converged in   1 iterations or   11 steps


 ENERGY| Total FORCE_EVAL ( QS ) energy [a.u.]:             -142.136743196236523

 STRESS| Analytical stress tensor [GPa]
 STRESS|                        x                   y                   z
 STRESS|      x       -3.11611762059E+01   2.25518812152E+00   7.12064756250E-02
 STRESS|      y        2.25518812152E+00  -2.85571104021E+01  -4.11126894937E-02
 STRESS|      z        7.12064756250E-02  -4.11126894937E-02  -3.07527610806E+01
 STRESS| 1/3 Trace                                            -3.01570158962E+01
 STRESS| Determinant                                          -2.72094674360E+04

 STRESS| Eigenvectors and eigenvalues of the analytical stress tensor [GPa]
 STRESS|                        1                   2                   3
 STRESS| Eigenvalues  -3.24671534056E+01  -3.07488176335E+01  -2.72550766495E+01
 STRESS|      x           0.865031049016      0.041487443871      0.500000076239
 STRESS|      y          -0.499426032501     -0.023952333904      0.866025359768
 STRESS|      z          -0.047905347282      0.998851879761     -0.000000396968

 Number of electrons:                                                         32
 Number of occupied orbitals:                                                 16
 Number of molecular orbitals:                                                26

 Number of orbital functions:                                                 65
 Number of independent orbital functions:                                     65

 Extrapolation method: initial_guess


 SCF WAVEFUNCTION OPTIMIZATION

  Step     Update method      Time    Convergence         Total energy    Change
  ------------------------------------------------------------------------------
     1 Broy./Diag. 0.40E+00    4.5     0.96403903      -142.3225314695 -1.42E+02
     2 Broy./Diag. 0.40E+00    7.4     0.35072622      -144.8125071677 -2.49E+00
     3 Broy./Diag. 0.40E+00    6.9     0.10254341      -142.5063519461  2.31E+00
     4 Broy./Diag. 0.40E+00    7.4     0.01382353      -142.3222959171  1.84E-01
     5 Broy./Diag. 0.40E+00    7.8     0.00417652      -142.0624353902  2.60E-01
     6 Broy./Diag. 0.40E+00    7.3     0.00163292      -142.1020239408 -3.96E-02
     7 Broy./Diag. 0.40E+00    7.5     0.00030347      -142.1044777650 -2.45E-03
     8 Broy./Diag. 0.40E+00    8.5     0.00001704      -142.1112298710 -6.75E-03
     9 Broy./Diag. 0.40E+00    8.5     0.00001278      -142.1110453480  1.85E-04
    10 Broy./Diag. 0.40E+00    8.7     0.00001827      -142.1110523620 -7.01E-06
    11 Broy./Diag. 0.40E+00    9.5     0.00001287      -142.1110365358  1.58E-05
    12 Broy./Diag. 0.40E+00    8.1     0.00000102      -142.1110130752  2.35E-05

  *** SCF run converged in    12 steps ***


  Electronic density on regular grids:        -31.9999999997        0.0000000003
  Core density on regular grids:               31.9999999983       -0.0000000017
  Total charge density on r-space grids:       -0.0000000014
  Total charge density g-space grids:          -0.0000000014

  Overlap energy of the core charge distribution:               0.00000000000115
  Self energy of the core charge distribution:               -270.50049252062627
  Core Hamiltonian energy:                                     61.27377918518625
  Hartree energy:                                              84.38439155283623
  Exchange-correlation energy:                                -17.23567746107328
  Dispersion energy:                                           -0.03281868072739
  Electronic entropic energy:                                  -0.00019515069974
  Fermi energy:                                                 0.49444715824765

  Total energy:                                              -142.11101307517453

  outer SCF iter =    1 RMS gradient =   0.10E-05 energy =       -142.1110130752
  outer SCF loop converged in   1 iterations or   12 steps


 ENERGY| Total FORCE_EVAL ( QS ) energy [a.u.]:             -142.111016505253104

 STRESS| Analytical stress tensor [GPa]
 STRESS|                        x                   y                   z
 STRESS|      x       -4.27838621509E+01   2.14503386211E+00   5.79393145589E-02
 STRESS|      y        2.14503386211E+00  -4.03069990833E+01  -3.34519124645E-02
 STRESS|      z        5.79393145589E-02  -3.34519124645E-02  -4.26717087465E+01
 STRESS| 1/3 Trace                                            -4.19208566602E+01
 STRESS| Determinant                                          -7.33903816233E+04

 STRESS| Eigenvectors and eigenvalues of the analytical stress tensor [GPa]
 STRESS|                        1                   2                   3
 STRESS| Eigenvalues  -4.40256062077E+01  -4.26684027394E+01  -3.90685610336E+01
 STRESS|      x           0.864969604847      0.042742562330      0.500000656057
 STRESS|      y          -0.499391315753     -0.024677313628      0.866025025010
 STRESS|      z          -0.049354801614      0.998781309175     -0.000000138223

 Number of electrons:                                                         32
 Number of occupied orbitals:                                                 16
 Number of molecular orbitals:                                                26

 Number of orbital functions:                                                 65
 Number of independent orbital functions:                                     65

 Extrapolation method: initial_guess


 SCF WAVEFUNCTION OPTIMIZATION

  Step     Update method      Time    Convergence         Total energy    Change
  ------------------------------------------------------------------------------
     1 Broy./Diag. 0.40E+00    5.7     1.00109233      -142.8557679076 -1.43E+02
     2 Broy./Diag. 0.40E+00   10.6     0.33255323      -144.3541603828 -1.50E+00
     3 Broy./Diag. 0.40E+00    8.7     0.06958900      -142.5615276102  1.79E+00
     4 Broy./Diag. 0.40E+00    8.8     0.01361304      -142.3063924614  2.55E-01
     5 Broy./Diag. 0.40E+00    8.4     0.00331147      -142.1157736014  1.91E-01
     6 Broy./Diag. 0.40E+00    9.0     0.00105653      -142.1424012515 -2.66E-02
     7 Broy./Diag. 0.40E+00    8.5     0.00025571      -142.1501213400 -7.72E-03
     8 Broy./Diag. 0.40E+00    8.5     0.00000797      -142.1538961658 -3.77E-03

  *** SCF run converged in     8 steps ***


  Electronic density on regular grids:        -31.9999999997        0.0000000003
  Core density on regular grids:               31.9999999983       -0.0000000017
  Total charge density on r-space grids:       -0.0000000014
  Total charge density g-space grids:          -0.0000000014

  Overlap energy of the core charge distribution:               0.00000000003806
  Self energy of the core charge distribution:               -270.50049252062627
  Core Hamiltonian energy:                                     62.14061006298773
  Hartree energy:                                              83.76909420999569
  Exchange-correlation energy:                                -17.52231435057894
  Dispersion energy:                                           -0.04063249233559
  Electronic entropic energy:                                  -0.00016107420306
  Fermi energy:                                                 0.61954341727219

  Total energy:                                              -142.15389616584818
