216
Lattice="14.42345080517216 0.0 0.0 -7.211725402586077 12.49107480751421 0.0 0.0 0.0 25.25657494014789" Properties=species:S:1:pos:R:3:spacegroup_kinds:I:1:forces:R:3 spacegroup="P 6/m m m" unit_cell=conventional energy=-70887.030717182 stress="-0.0022181604070154 -0.0038945540325204 -1.2362772423194e-07 -0.0038945540325204 -0.0067152207118698 2.6256467725278e-08 -1.2362772423194e-07 2.6256467725278e-08 -0.0058343787607341" free_energy=-70887.030717182 pbc="T T T"
O        7.21244658       4.16327523       0.00000000        0      -0.00530713       0.00306511      -0.00000024
O       -0.00072117       8.32779957       0.00000000        0       0.00531559      -0.00306219      -0.00000042
O        5.89342200       3.40256878       2.14680887        1      -0.31114589      -0.17399724      -0.38897917
O        8.53002881       3.40256878       2.14680887        1       0.33738632      -0.19417553      -0.37675550
O        7.21172540       5.68593725       2.14680887        1      -0.00593715       0.35645633      -0.38898294
O        1.31830340       9.08850603       2.14680887        1       0.31114012       0.17399800      -0.38896855
O       -1.31830340       9.08850603       2.14680887        1      -0.33738735       0.19417402      -0.37675970
O        0.00000000       6.80513756       2.14680887        1       0.00593007      -0.35645913      -0.38898251
O        1.31830340       9.08850603      23.10976607        1       0.31114976       0.17399449       0.38897434
O       -1.31830340       9.08850603      23.10976607        1      -0.33738966       0.19417641       0.37676059
O        0.00000000       6.80513756      23.10976607        1       0.00592367      -0.35645796       0.38897677
O        5.89342200       3.40256878      23.10976607        1      -0.31114227      -0.17399598       0.38897461
O        8.53002881       3.40256878      23.10976607        1       0.33738738      -0.19417538       0.37676146
O        7.21172540       5.68593725      23.10976607        1      -0.00593056       0.35645845       0.38897567
O        4.93714721       1.32405393       3.47025340        2      -0.39838205      -0.09459141      -0.29776580
O       10.80821286       3.61366794       3.47025340        2       0.28855052      -0.31962511      -0.30680990
O        5.88981614       7.55335294       3.47025340        2       0.10890997       0.37112110      -0.29845860
O        2.27457819      11.16702088       3.47025340        2       0.39839283       0.09459176      -0.29776653
O       -3.59648746       8.87740687       3.47025340        2      -0.28855384       0.31963076      -0.30680517
O        1.32190927       4.93772187       3.47025340        2      -0.10890886      -0.37111855      -0.29846745
O        8.53363467       7.55335294       3.47025340        2      -0.11602208       0.39453784      -0.29901704
O        9.48630359       1.32405393       3.47025340        2       0.42239273      -0.09228609      -0.30805397
O        3.61523794       3.61366794       3.47025340        2      -0.26950797      -0.27990528      -0.29971483
O       -1.32190927       4.93772187       3.47025340        2       0.11601704      -0.39454468      -0.29901089
O       -2.27457819      11.16702088       3.47025340        2      -0.42239260       0.09228890      -0.30805686
O        3.59648746       8.87740687       3.47025340        2       0.26950779       0.27990185      -0.29972130
O        2.27457819      11.16702088      21.78632154        2       0.39838130       0.09459293       0.29776819
O       -3.59648746       8.87740687      21.78632154        2      -0.28855467       0.31962926       0.30680092
O        1.32190927       4.93772187      21.78632154        2      -0.10890393      -0.37112128       0.29847102
O        4.93714721       1.32405393      21.78632154        2      -0.39838445      -0.09459261       0.29776821
O       10.80821286       3.61366794      21.78632154        2       0.28855715      -0.31963343       0.30680035
O        5.88981614       7.55335294      21.78632154        2       0.10890815       0.37112114       0.29846942
O       -1.32190927       4.93772187      21.78632154        2       0.11602376      -0.39454462       0.29900619
O       -2.27457819      11.16702088      21.78632154        2      -0.42239324       0.09228801       0.30805666
O        3.59648746       8.87740687      21.78632154        2       0.26950797       0.27991005       0.29971197
O        8.53363467       7.55335294      21.78632154        2      -0.11601744       0.39454005       0.29901290
O        9.48630359       1.32405393      21.78632154        2       0.42238618      -0.09228417       0.30805706
O        3.61523794       3.61366794      21.78632154        2      -0.26950497      -0.27990731       0.29971380
O        5.89197965       3.40256878       4.77349266        3      -0.07629098      -0.04142769       0.80525319
O        8.53074998       3.40131967       4.77349266        3       0.10082705      -0.05813404       0.79228244
O        7.21244658       5.68718636       4.77349266        3      -0.00330033       0.08701627       0.80520676
O        1.31974575       9.08850603       4.77349266        3       0.07629025       0.04143005       0.80525879
O       -1.31902458       9.08975514       4.77349266        3      -0.10082801       0.05813477       0.79228008
O       -0.00072117       6.80388845       4.77349266        3       0.00330415      -0.08701681       0.80520303
O        1.31974575       9.08850603      20.48308228        3       0.07629080       0.04143095      -0.80525729
O       -1.31902458       9.08975514      20.48308228        3      -0.10082518       0.05813322      -0.79228056
O       -0.00072117       6.80388845      20.48308228        3       0.00330485      -0.08701620      -0.80520485
O        5.89197965       3.40256878      20.48308228        3      -0.07629075      -0.04143127      -0.80526106
O        8.53074998       3.40131967      20.48308228        3       0.10082768      -0.05813274      -0.79227654
O        7.21244658       5.68718636      20.48308228        3      -0.00330525       0.08701638      -0.80520602
O        7.21244658       4.16327523       6.91777588        4      -0.00137094       0.00078716      -0.89250179
O       -0.00072117       8.32779957       6.91777588        4       0.00136663      -0.00078884      -0.89250086
O       -0.00072117       8.32779957      18.33879906        4       0.00137098      -0.00078984       0.89250167
O        7.21244658       4.16327523      18.33879906        4      -0.00136630       0.00079049       0.89250144
O        5.58043312       0.00000000       5.65242147        5      -0.06884921      -0.00799440       0.22803001
O       -2.79021656       4.83279684       5.65242147        5       0.03059074      -0.06957223       0.22836867
O        4.42150884       7.65827796       5.65242147        5       0.03256672       0.05611826       0.23071252
O        8.84301769       0.00000000       5.65242147        5       0.07861363       0.00800409       0.22864244
O       -4.42150884       7.65827796       5.65242147        5      -0.02879848       0.06646090       0.22825701
O        2.79021656       4.83279684       5.65242147        5      -0.03257328      -0.05611375       0.23071085
O        8.84301769       0.00000000      19.60415347        5       0.07375372       0.00800123      -0.22831637
O       -4.42150884       7.65827796      19.60415347        5      -0.02968469       0.06799521      -0.22833888
O        2.79021656       4.83279684      19.60415347        5      -0.03256525      -0.05609017      -0.23074309
O        5.58043312       0.00000000      19.60415347        5      -0.07375175      -0.00799982      -0.22831505
O       -2.79021656       4.83279684      19.60415347        5       0.02967614      -0.06798872      -0.22833343
O        4.42150884       7.65827796      19.60415347        5       0.03256471       0.05609605      -0.23073675
O        7.21172540       0.00000000       3.58390798        6       0.00029907      -0.00000345      -0.48338437
O       -3.60586270       6.24553740       3.58390798        6      -0.00014194       0.00025268      -0.48217302
O        3.60586270       6.24553740       3.58390798        6       0.00000117      -0.00000314      -0.49374828
O        7.21172540       0.00000000      21.67266696        6      -0.00034392      -0.00000412       0.48332153
O       -3.60586270       6.24553740      21.67266696        6       0.00018272      -0.00031764       0.48456157
O        3.60586270       6.24553740      21.67266696        6      -0.00000075      -0.00000274       0.49538808
O        7.21172540       0.00000000       7.72346062        7       0.00000390       0.00000583       0.45265475
O       -3.60586270       6.24553740       7.72346062        7      -0.00000274      -0.00000060       0.45369428
O        3.60586270       6.24553740       7.72346062        7       0.00000485      -0.00000363       0.46674922
O        7.21172540       0.00000000      17.53311432        7      -0.00000181      -0.00000266      -0.45267541
O       -3.60586270       6.24553740      17.53311432        7      -0.00000465      -0.00000075      -0.45164106
O        3.60586270       6.24553740      17.53311432        7      -0.00000523       0.00000426      -0.46507961
O        4.91695438       1.31406107       7.83206389        8      -0.19975006      -0.18218290      -0.26815491
O       10.82696335       3.60117687       7.83206389        8       0.24709055      -0.09644092      -0.26529055
O        5.89125848       7.57583687       7.83206389        8      -0.04570448       0.25702768      -0.26424301
O        2.29477102      11.17701374       7.83206389        8       0.19975190       0.18217982      -0.26815813
O       -3.61523794       8.88989794       7.83206389        8      -0.24708397       0.09643834      -0.26528667
O        1.32046692       4.91523794       7.83206389        8       0.04570880      -0.25702981      -0.26423994
O        8.53219232       7.57583687       7.83206389        8       0.05625638       0.26164620      -0.26635494
O        9.50649643       1.31406107       7.83206389        8       0.20574932      -0.16312806      -0.26347715
O        3.59648746       3.60117687       7.83206389        8      -0.24250861      -0.08911651      -0.26243158
O       -1.32046692       4.91523794       7.83206389        8      -0.05625386      -0.26163708      -0.26635341
O       -2.29477102      11.17701374       7.83206389        8      -0.20574739       0.16313045      -0.26347724
O        3.61523794       8.88989794       7.83206389        8       0.24251712       0.08911394      -0.26242888
O        2.29477102      11.17701374      17.42451105        8       0.19976738       0.18217309       0.26816117
O       -3.61523794       8.88989794      17.42451105        8      -0.24708424       0.09643057       0.26528641
O        1.32046692       4.91523794      17.42451105        8       0.04572932      -0.25701508       0.26423736
O        4.91695438       1.31406107      17.42451105        8      -0.19976480      -0.18217482       0.26815620
O       10.82696335       3.60117687      17.42451105        8       0.24709108      -0.09643251       0.26528995
O        5.89125848       7.57583687      17.42451105        8      -0.04573054       0.25701598       0.26424056
O       -1.32046692       4.91523794      17.42451105        8      -0.05625716      -0.26163054       0.26635951
O       -2.29477102      11.17701374      17.42451105        8      -0.20576384       0.16312143       0.26347568
O        3.61523794       8.88989794      17.42451105        8       0.24250457       0.08909784       0.26242865
O        8.53219232       7.57583687      17.42451105        8       0.05625706       0.26163548       0.26635342
O        9.50649643       1.31406107      17.42451105        8       0.20576325      -0.16312164       0.26347458
O        3.59648746       3.60117687      17.42451105        8      -0.24250972      -0.08910255       0.26243339
O        5.89919138       3.40506699       9.07468738        9       0.19816143       0.12176525       0.45705621
O        8.52498060       3.40631610       9.07468738        9      -0.16251922       0.09785045       0.45567530
O        7.21100423       5.67969171       9.07468738        9      -0.00908128      -0.23341101       0.45712324
O        1.31253402       9.08600781       9.07468738        9      -0.19815695      -0.12176172       0.45704810
O       -1.31325520       9.08475871       9.07468738        9       0.16252320      -0.09784692       0.45567895
O        0.00072117       6.81138309       9.07468738        9       0.00908157       0.23341083       0.45712838
O        1.31253402       9.08600781      16.18188756        9      -0.19816135      -0.12176346      -0.45705261
O       -1.31325520       9.08475871      16.18188756        9       0.16252334      -0.09784444      -0.45567426
O        0.00072117       6.81138309      16.18188756        9       0.00907919       0.23341018      -0.45712993
O        5.89919138       3.40506699      16.18188756        9       0.19815918       0.12176429      -0.45704952
O        8.52498060       3.40631610      16.18188756        9      -0.16252337       0.09784459      -0.45567570
O        7.21100423       5.67969171      16.18188756        9      -0.00907765      -0.23341137      -0.45713016
O        3.80779101       2.19842917      10.06727077       10       0.15880251       0.08254782       0.23800316
O       10.61565979       2.19842917      10.06727077       10      -0.15266997       0.08796143       0.23759510
O        7.21172540       8.09421648      10.06727077       10       0.00822224      -0.17880417       0.23800767
O        3.40393439      10.29264564      10.06727077       10      -0.15880833      -0.08255147       0.23800717
O       -3.40393439      10.29264564      10.06727077       10       0.15266844      -0.08796520       0.23758966
O        0.00000000       4.39685833      10.06727077       10      -0.00822215       0.17879980       0.23800848
O        3.40393439      10.29264564      15.18930417       10      -0.15880063      -0.08254976      -0.23801048
O       -3.40393439      10.29264564      15.18930417       10       0.15266796      -0.08795986      -0.23759268
O        0.00000000       4.39685833      15.18930417       10      -0.00822286       0.17879889      -0.23800893
O        3.80779101       2.19842917      15.18930417       10       0.15880162       0.08255288      -0.23800674
O       10.61565979       2.19842917      15.18930417       10      -0.15266942       0.08796566      -0.23759576
O        7.21172540       8.09421648      15.18930417       10       0.00822075      -0.17880302      -0.23800475
O        2.62651039       0.00000000      10.86537854       11      -0.26168715      -0.00400277      -0.23607339
O       -1.31325520       2.27462472      10.86537854       11       0.12320999      -0.23103898      -0.23607693
O        5.89847021      10.21645009      10.86537854       11       0.13192354       0.22369444      -0.22546936
O       11.79694041       0.00000000      10.86537854       11       0.26168897       0.00400378      -0.23607593
O       -5.89847021      10.21645009      10.86537854       11      -0.12321241       0.23103951      -0.23606783
O        1.31325520       2.27462472      10.86537854       11      -0.13192400      -0.22369311      -0.22546722
O       11.79694041       0.00000000      14.39119640       11       0.26168578       0.00400094       0.23607666
O       -5.89847021      10.21645009      14.39119640       11      -0.12321296       0.23103665       0.23606880
O        1.31325520       2.27462472      14.39119640       11      -0.13192319      -0.22369629       0.22546587
O        2.62651039       0.00000000      14.39119640       11      -0.26168910      -0.00400638       0.23607648
O       -1.31325520       2.27462472      14.39119640       11       0.12321139      -0.23104003       0.23607489
O        5.89847021      10.21645009      14.39119640       11       0.13192629       0.22369627       0.22546520
O        3.23301650       1.86741568      12.62828747       12       0.56350301       0.30062364      -0.00000099
O       11.18971313       1.86616658      12.62828747       12      -0.56437904       0.32560352       0.00000376
O        7.21244658       8.75749255      12.62828747       12       0.01778842      -0.63866985      -0.00000001
O        3.97870890      10.62365912      12.62828747       12      -0.56349914      -0.30062017      -0.00000162
O       -3.97798773      10.62490823      12.62828747       12       0.56438466      -0.32560339      -0.00000239
O       -0.00072117       3.73358226      12.62828747       12      -0.01779200       0.63866745      -0.00000035
Si       5.07993937       2.93290436       3.46015077       13      -0.34402023      -0.16189882      -0.25032210
Si       9.34351143       2.93290436       3.46015077       13       0.31282172      -0.18247334      -0.25087527
Si       7.21172540       6.62526608       3.46015077       13      -0.02860553       0.37888959      -0.25031413
Si       2.13178603       9.55817044       3.46015077       13       0.34402286       0.16189601      -0.25033322
Si      -2.13178603       9.55817044       3.46015077       13      -0.31281485       0.18247152      -0.25086858
Si       0.00000000       5.86580873       3.46015077       13       0.02860442      -0.37888211      -0.25030645
Si       2.13178603       9.55817044      21.79642417       13       0.34402296       0.16189383       0.25033017
Si      -2.13178603       9.55817044      21.79642417       13      -0.31281679       0.18246864       0.25087269
Si       0.00000000       5.86580873      21.79642417       13       0.02860252      -0.37888186       0.25031181
Si       5.07993937       2.93290436      21.79642417       13      -0.34402572      -0.16189294       0.25033294
Si       9.34351143       2.93290436      21.79642417       13       0.31282036      -0.18247118       0.25086934
Si       7.21172540       6.62526608      21.79642417       13      -0.02860152       0.37888394       0.25031028
Si       4.54122349       2.62187660       8.69583875       14       0.03160335       0.03056976       0.09522085
Si       9.88222732       2.62187660       8.69583875       14      -0.05658227       0.03439009       0.13290785
Si       7.21172540       7.24732160       8.69583875       14      -0.01362073      -0.04263939       0.09522119
Si       2.67050192       9.86919821       8.69583875       14      -0.03161263      -0.03056897       0.09522352
Si      -2.67050192       9.86919821       8.69583875       14       0.05657465      -0.03438092       0.13290644
Si       0.00000000       5.24375320       8.69583875       14       0.01361108       0.04263587       0.09521403
Si       2.67050192       9.86919821      16.56073619       14      -0.03160275      -0.03057074      -0.09522205
Si      -2.67050192       9.86919821      16.56073619       14       0.05657480      -0.03439236      -0.13290600
Si       0.00000000       5.24375320      16.56073619       14       0.01360862       0.04263318      -0.09521543
Si       4.54122349       2.62187660      16.56073619       14       0.03161013       0.03057139      -0.09522704
Si       9.88222732       2.62187660      16.56073619       14      -0.05657851       0.03438862      -0.13290351
Si       7.21172540       7.24732160      16.56073619       14      -0.01360974      -0.04263747      -0.09521904
Si       2.74766738       1.58636650      11.11541863       15       0.07564969       0.07597219      -0.45590344
Si      11.67578343       1.58636650      11.11541863       15      -0.11005475       0.06313530      -0.46088894
Si       7.21172540       9.31834181      11.11541863       15      -0.02729103      -0.10349306      -0.45589645
Si       4.46405802      10.90470831      11.11541863       15      -0.07564877      -0.07597161      -0.45590198
Si      -4.46405802      10.90470831      11.11541863       15       0.11005307      -0.06313627      -0.46089303
Si       0.00000000       3.17273300      11.11541863       15       0.02730033       0.10349681      -0.45589039
Si       4.46405802      10.90470831      14.14115631       15      -0.07565261      -0.07597512       0.45590727
Si      -4.46405802      10.90470831      14.14115631       15       0.11005214      -0.06313494       0.46089243
Si       0.00000000       3.17273300      14.14115631       15       0.02729802       0.10350177       0.45589193
Si       2.74766738       1.58636650      14.14115631       15       0.07564914       0.07597308       0.45590565
Si      11.67578343       1.58636650      14.14115631       15      -0.11005413       0.06313406       0.46088566
Si       7.21172540       9.31834181      14.14115631       15      -0.02729470      -0.10349285       0.45589595
Si       5.66408913       0.00000000       4.04357765       16      -0.15786384       0.02674972       0.24880449
Si      -2.83204457       4.90524508       4.04357765       16       0.10425175      -0.12209332       0.24880582
Si       4.37968084       7.58582973       4.04357765       16       0.10070155       0.17691678       0.24541308
Si       8.75936167       0.00000000       4.04357765       16       0.15785005      -0.02674645       0.24879102
Si      -4.37968084       7.58582973       4.04357765       16      -0.10424609       0.12208151       0.24879528
Si       2.83204457       4.90524508       4.04357765       16      -0.10070037      -0.17691509       0.24541433
Si       8.75936167       0.00000000      21.21299729       16       0.15786477      -0.02674967      -0.24878901
Si      -4.37968084       7.58582973      21.21299729       16      -0.10425074       0.12209014      -0.24880669
Si       2.83204457       4.90524508      21.21299729       16      -0.10069540      -0.17691151      -0.24542736
Si       5.66408913       0.00000000      21.21299729       16      -0.15786070       0.02675171      -0.24878684
Si      -2.83204457       4.90524508      21.21299729       16       0.10424999      -0.12208824      -0.24879891
Si       4.37968084       7.58582973      21.21299729       16       0.10069105       0.17690958      -0.24542681
Si       5.66408913       0.00000000       7.26379095       17      -0.42091332       0.02779759      -0.04099045
Si      -2.83204457       4.90524508       7.26379095       17       0.23263331      -0.35158548      -0.04097648
Si       4.37968084       7.58582973       7.26379095       17       0.23401780       0.40322013      -0.04064897
Si       8.75936167       0.00000000       7.26379095       17       0.42091145      -0.02780624      -0.04099293
Si      -4.37968084       7.58582973       7.26379095       17      -0.23263171       0.35158453      -0.04097685
Si       2.83204457       4.90524508       7.26379095       17      -0.23401437      -0.40322319      -0.04064844
Si       8.75936167       0.00000000      17.99278399       17       0.42077968      -0.02780095       0.04095829
Si      -4.37968084       7.58582973      17.99278399       17      -0.23267729       0.35167599       0.04099030
Si       2.83204457       4.90524508      17.99278399       17      -0.23409159      -0.40334955       0.04068706
Si       5.66408913       0.00000000      17.99278399       17      -0.42078031       0.02780469       0.04096313
Si      -2.83204457       4.90524508      17.99278399       17       0.23268217      -0.35167313       0.04098764
Si       4.37968084       7.58582973      17.99278399       17       0.23409136       0.40335284       0.04068364
Si       7.21244658       4.16327523       1.60884382       18      -0.01309611       0.00756901      -0.65618049
Si      -0.00072117       8.32779957       1.60884382       18       0.01310203      -0.00756772      -0.65618356
Si      -0.00072117       8.32779957      23.64773112       18       0.01310163      -0.00756844       0.65618444
Si       7.21244658       4.16327523      23.64773112       18      -0.01310563       0.00756581       0.65618380
Si       7.21244658       4.16327523       5.30640639       19      -0.01351106       0.00775203       0.70208962
Si      -0.00072117       8.32779957       5.30640639       19       0.01350942      -0.00775726       0.70209040
Si      -0.00072117       8.32779957      19.95016855       19       0.01350503      -0.00775321      -0.70208681
Si       7.21244658       4.16327523      19.95016855       19      -0.01351099       0.00775092      -0.70208917
Si       7.21244658       4.16327523       8.52914536       20      -0.01204281       0.00701466       0.30571802
Si      -0.00072117       8.32779957       8.52914536       20       0.01204477      -0.00701426       0.30571728
Si      -0.00072117       8.32779957      16.72742958       20       0.01204198      -0.00701279      -0.30572095
Si       7.21244658       4.16327523      16.72742958       20      -0.01204791       0.00701046      -0.30571948
