40
	Energy:      30.2551312
C         -6.33356       -1.69780        0.09621
C         -6.24013       -0.32942        0.33691
C         -5.01106        0.24081        0.65615
C         -3.86757       -0.55299        0.73868
C         -3.94276       -1.93509        0.51648
C         -5.18495       -2.49181        0.18526
O         -7.58194       -2.20566       -0.23642
O         -7.36143        0.44031        0.24297
H         -4.94144        1.31104        0.83478
H         -2.92862       -0.06380        0.96844
C         -2.73476       -2.88297        0.56782
H         -5.24503       -3.55932       -0.00819
H         -8.10102       -0.15846       -0.00000
C         -7.83205       -3.61077       -0.47130
H         -7.22327       -3.95619       -1.31145
H         -7.58881       -4.18036        0.42989
H         -8.89037       -3.74406       -0.71146
C         -1.37699       -2.38602        1.17766
H         -2.54977       -3.25521       -0.44440
O         -3.12036       -4.02158        1.38679
H         -1.36520       -1.33121        1.44298
C         -0.18000       -2.72183        0.26768
H         -0.26071       -3.74844       -0.10233
H          0.75064       -2.62761        0.83454
O         -0.13939       -1.81347       -0.82765
C         -2.29118       -4.16888        2.46457
H          0.72973       -1.37711       -0.79691
C         -2.76181       -4.60893        3.76498
C         -2.07822       -4.19660        4.90976
C         -0.99290       -3.32759        4.83924
C         -0.56916       -2.82918        3.61432
C         -1.22624       -3.23209        2.39891
O         -3.83741       -5.44734        3.99774
H          0.28029       -2.15148        3.56901
H         -2.40601       -4.55475        5.88266
H         -0.48028       -3.02987        5.75122
C         -4.76168       -5.81472        2.94990
H         -5.53423       -6.46499        3.36618
H         -4.22193       -6.34203        2.15836
H         -5.22609       -4.91118        2.54312
