48
	Energy:      24.3300429
C         -3.06392       -2.41144        0.15730
C         -4.44050       -2.65087        0.11600
C         -2.42345       -1.78848       -0.91826
C         -3.16499       -1.41516       -2.04097
C         -4.53565       -1.66147       -2.09001
C         -5.16735       -2.27827       -1.01318
H         -2.47749       -2.70918        1.02154
O         -5.13395       -3.24956        1.15853
H         -5.11001       -1.37461       -2.96752
O         -6.50284       -2.52982       -1.03959
C         -0.92364       -1.53743       -0.87523
H         -2.67615       -0.93727       -2.88640
H         -6.69848       -2.98356       -0.19268
C         -4.53784       -3.53777        2.44450
H         -5.29913       -3.97647        3.09511
H         -4.16870       -2.61027        2.89121
H         -3.71629       -4.24804        2.31723
C         -0.47014       -0.66826        0.32160
H         -1.30403       -0.35601        0.95584
C          0.37231        0.55344       -0.07237
C          0.50807       -1.53308        1.11132
O          1.26422        0.71142        1.05184
H          0.00640       -1.98651        1.97058
C          1.66338       -0.59784        1.52805
C          0.93061       -2.61533        0.10842
O         -0.25631       -2.80896       -0.68517
H          1.22547       -3.54561        0.60129
H          1.73037       -2.25508       -0.54552
H         -0.56784       -1.10168       -1.81361
H         -0.23804        1.44950       -0.21426
H          0.96874        0.34779       -0.96623
H          2.58232       -0.87590        1.00331
C          1.88904       -0.59411        3.03412
C          1.24154        0.32361        3.86796
C          1.42783        0.27180        5.24749
C          2.25278       -0.70463        5.79858
C          2.90174       -1.62757        4.98025
C          2.71958       -1.56706        3.59513
H          3.20873       -2.28363        2.94176
O          2.42796       -0.78869        7.14394
O          3.69539       -2.58533        5.59585
H          0.58095        1.07971        3.45075
H          0.92136        0.98570        5.89251
H          3.02275       -1.55486        7.28365
C          4.39699       -3.62382        4.87393
H          4.94174       -4.24409        5.59083
H          5.10510       -3.16954        4.17538
H          3.67664       -4.24308        4.33223
