43
Lattice="22.190660570000002 0.0 0.0 0.0 22.34341049 0.0 0.0 0.0 17.4949342" Properties=species:S:1:pos:R:3:forces:R:3 GG=T energy=-5564.5466207252 stress="0.00032773181177806 -2.7781606775527e-05 3.1207113285087e-06 -2.7781606775527e-05 0.00031214458222507 -5.1373072521295e-05 3.1207113285087e-06 -5.1373072521295e-05 0.00035770541807507" free_energy=-5564.5466207252 pbc="T T T"
H        9.27118852       6.39141956       6.00000000      -0.00853135      -0.02296494       0.00398364
H        7.54588553       7.85152662       7.00972490      -0.00285870      -0.01092333      -0.00076531
H        6.96971325      10.06129356       7.68632850      -0.01085774      -0.00238620      -0.00697244
H        6.16531725      10.31912085       9.27109662      -0.00173143      -0.01748915      -0.00175760
H       13.66187096      16.34341049       9.28790242       0.01358455      -0.00033522       0.00538829
H       14.56325440      11.57443605       6.42592656      -0.01154177       0.00377519      -0.01136287
H       16.19066057      12.25279188       6.75692147      -0.01135863       0.00232913      -0.00890616
C       15.20406968      12.04345001       7.19084002      -0.00734996      -0.00267701      -0.00842912
O       14.69139531      13.31262731       7.61466522       0.00433041       0.00298347       0.00711412
C        9.47053201       6.87417627       6.95574507      -0.00125377      -0.01950117      -0.00503710
H       15.31549488      11.35625695       8.04611342      -0.00138085      -0.01585286      -0.01450495
C        8.49379581       7.70403403       7.52175822      -0.00276489      -0.00981967      -0.00172407
H       12.91373148      11.27488169       7.94692746       0.00184427      -0.00251671       0.01320011
C       13.53416758      13.29536568       8.35391874       0.00912264      -0.00742192       0.00205876
H       11.43476041       6.00000000       7.18748370       0.00060337      -0.01144342      -0.00594914
C       10.68275026       6.66222009       7.61344965      -0.00183811      -0.01054467      -0.00570138
C        6.67417969       9.58421958       8.63385854      -0.00617409      -0.00808479      -0.00320474
C       12.68549736      12.19185977       8.48769435       0.00452658       0.00309353       0.01129894
H        6.00000000       8.73602439       8.43925725      -0.00315689      -0.01088082      -0.00583407
H       10.62719932      10.50526404       8.46173662       0.01001494       0.00214486      -0.00360470
C        8.74098785       8.34799935       8.73976452      -0.00168400       0.00123065      -0.00459825
O       14.03685538      15.58347279       8.80840853      -0.00139769      -0.00055434      -0.01378593
C       13.19856227      14.50758679       9.00417146      -0.00162809       0.00908574       0.00383652
O        7.83268254       9.16605600       9.38124620       0.00473345      -0.00074652      -0.00081363
O        9.32038300      11.48748071       9.76604038      -0.00387938       0.01666747      -0.00794990
C       11.53561577      12.25008951       9.29677082      -0.00233550       0.00450136       0.00825313
C       10.93668640       7.31302625       8.82733604       0.00743773      -0.00498853      -0.01394494
H        8.77130683      10.68060910       9.88035675      -0.00572731       0.01690738      -0.00080339
C       10.63532264      11.03803608       9.43189812      -0.00541295       0.00950968      -0.00511175
C        9.99318829       8.18367837       9.38182990       0.00537451       0.00607869      -0.01121725
C       12.05513239      14.56097042       9.80179768       0.00260106       0.00101172       0.00530912
C       11.23099585      13.43973478       9.96050620       0.00106413       0.00702168       0.00580865
H       11.87610900       7.15489697       9.35627567       0.00797494       0.00007069      -0.01206135
H       12.76063958       9.23629712       9.31194187       0.00465840      -0.00622595       0.01800189
H       11.80806707      15.49604818      10.30634361       0.00272296       0.00781714       0.00386544
H       10.33444195      13.49122667      10.57430177      -0.00214263       0.01063100       0.00112091
O       10.22657841       8.86436566      10.57168436      -0.00779186      -0.00559393      -0.00185373
C       11.12862547      10.04061677      10.50333356      -0.00370040       0.00845635       0.00097094
C       12.57509524       9.57117166      10.34887946       0.00097894       0.00829404       0.01126434
H       10.98923065      10.49486116      11.49493420      -0.00583695      -0.00158388       0.00064638
H       13.24926125      10.41728536      10.54702731       0.00745488       0.00681807       0.00526076
O       12.88932340       8.53142129      11.28306186      -0.00944263       0.01105819       0.02468312
H       12.04674509       8.07123711      11.46451873       0.00637304       0.00601015       0.00121445
