43
Lattice="22.105000000000004 0.0 0.0 0.0 22.271 0.0 0.0 0.0 17.426000000000002" Properties=species:S:1:pos:R:3:forces:R:3 GG=T energy=-5564.5810175547 stress="0.00033972100173437 -2.1725154819117e-05 -6.5975552654752e-06 -2.1725154819117e-05 0.00032138996880866 -4.9642164028533e-05 -6.5975552654752e-06 -4.9642164028533e-05 0.00036914475404793" free_energy=-5564.5810175547 pbc="T T T"
H        9.19116585       6.34764356       5.93557282      -0.01135970      -0.02023034       0.00801626
H        7.46429273       7.80566255       6.94599103      -0.00081073      -0.00751496       0.00036269
H        6.88966945      10.01478935       7.62328368      -0.01011076      -0.00397484      -0.00317683
H        6.08449890      10.27411240       9.20736808      -0.00717156      -0.01337271       0.00001793
H       13.57769900      16.29613358       9.22337533       0.01618166       0.00218372       0.00698578
H       14.48307367      11.52625055       6.36391077      -0.00930628       0.00839941      -0.00937163
H       16.11023345      12.20544167       6.69492858      -0.00636787       0.00051341      -0.01129897
C       15.12345733      11.99687030       7.12836381      -0.00427826      -0.00118534      -0.00758439
O       14.61091416      13.26721154       7.54976229       0.00352773      -0.00324755       0.00908454
C        9.38941064       6.82953330       6.89209630      -0.00364114      -0.01732816      -0.00018485
H       15.23379338      11.31130297       7.98520183       0.00009541      -0.01346331      -0.01786580
C        8.41216189       7.65889108       7.45840296      -0.00300643      -0.00804997       0.00280311
H       12.83155870      11.22778425       7.88131601       0.00369650      -0.00093857       0.01294770
C       13.45267604      13.24872732       8.28852448       0.00236697      -0.00692642       0.00839439
H       11.35333361       5.95414258       7.12479428      -0.00193770      -0.00834131      -0.00627696
C       10.60116829       6.61649012       7.55045846      -0.00328239      -0.00676334      -0.00030308
C        6.59314076       9.53858271       8.57103170      -0.00562310      -0.00788251      -0.00345352
C       12.60381348      12.14481658       8.42219894       0.00289059       0.00630117       0.01272571
H        5.91893379       8.69038131       8.37659556      -0.00403995      -0.00903975      -0.00580735
H       10.54498535      10.45756091       8.39781922       0.00107075       0.00592283       0.00523670
C        8.65862358       8.30187477       8.67745476       0.00095840      -0.00373599      -0.00603482
O       13.95614214      15.53563461       8.74760469       0.00932920      -0.00174555       0.00198219
C       13.11647880      14.46010972       8.93994231       0.00522121       0.01019267       0.00841450
O        7.75064725       9.12019265       9.32007560      -0.00154975      -0.00183865      -0.00477651
O        9.23897286      11.43794906       9.70699905      -0.00000773       0.01662298       0.00071042
C       11.45394246      12.20231415       9.23215743       0.00221501       0.00262853       0.00422953
C       10.85438714       7.26630706       8.76515809       0.00434684      -0.00513584      -0.01090336
H        8.69077830      10.62949294       9.81627501      -0.00963255       0.02775453       0.00513847
C       10.55350064      10.99008656       9.36839700      -0.00083710       0.00574909       0.00430934
C        9.91043069       8.13655480       9.31985961       0.00432866       0.00061310      -0.00382003
C       11.97286878      14.51315992       9.73744932       0.00528683      -0.00194010       0.00140591
C       11.14908089      13.39159447       9.89612709       0.00108824       0.01304966       0.00665810
H       11.79337565       7.10789469       9.29482104       0.00701077      -0.00126703      -0.01364556
H       12.67842752       9.18922462       9.24686109       0.00289473       0.00212220       0.00770707
H       11.72585203      15.44811645      10.24210984       0.00254740       0.00814488       0.00616308
H       10.25305379      13.44235685      10.51075729      -0.00277896       0.01163921       0.00002151
O       10.14257108       8.81696607      10.51070231       0.00504842      -0.00217803      -0.00490493
C       11.04688326       9.99257155      10.43999859       0.00015887       0.00169586       0.00292992
C       12.49319132       9.52317550      10.28385669       0.00313997       0.00368929       0.00660238
H       10.90818549      10.44835842      11.43090979      -0.00372578      -0.00386656       0.00286274
H       13.16624944      10.37035195      10.48247538       0.00832306      -0.00310049       0.00671365
O       12.80927675       8.48043352      11.21425991       0.00376875       0.00196535       0.00790916
H       11.96522466       8.02468672      11.39978593       0.00692751      -0.00113524       0.00788209
