43
Lattice="22.191299659999995 0.0 0.0 0.0 22.341991 0.0 0.0 0.0 17.49533697" Properties=species:S:1:pos:R:3:forces:R:3 GG=T energy=-5564.5466846456 stress="0.00032774680506615 -2.8141000206768e-05 3.1308473313579e-06 -2.8141000206768e-05 0.00031252720299366 -5.1225231515215e-05 3.1308473313579e-06 -5.1225231515215e-05 0.00035775006663701" free_energy=-5564.5466846456 pbc="T T T"
H        9.27054731       6.39019146       6.00088041      -0.00849988      -0.02302012       0.00344488
H        7.54524432       7.85029852       7.01060531      -0.00281117      -0.01076586      -0.00089267
H        6.96907204      10.06006546       7.68720891      -0.01089695      -0.00249060      -0.00684181
H        6.16467604      10.31789275       9.27197703      -0.00183215      -0.01728709      -0.00169970
H       13.66122975      16.34218239       9.28878283       0.01347526      -0.00046313       0.00500230
H       14.56261319      11.57320795       6.42680697      -0.01141672       0.00374354      -0.01136020
H       16.19001936      12.25156378       6.75780188      -0.01131004       0.00230679      -0.00888883
C       15.20342847      12.04222191       7.19172043      -0.00697703      -0.00231200      -0.00783150
O       14.69075410      13.31139921       7.61554563       0.00549769       0.00252396       0.00714009
C        9.46989080       6.87294817       6.95662548      -0.00115577      -0.01857384      -0.00451456
H       15.31485367      11.35502885       8.04699383      -0.00144693      -0.01571441      -0.01457723
C        8.49315460       7.70280593       7.52263863      -0.00220427      -0.01034742      -0.00212037
H       12.91309027      11.27365359       7.94780787       0.00184732      -0.00210844       0.01335199
C       13.53352637      13.29413758       8.35479915       0.00887584      -0.00238116       0.00372202
H       11.43411920       5.99877190       7.18836411       0.00037948      -0.01121902      -0.00582974
C       10.68210905       6.66099199       7.61433006      -0.00105870      -0.01129114      -0.00653685
C        6.67353848       9.58299148       8.63473895      -0.00559705      -0.00808202      -0.00323930
C       12.68485615      12.19063167       8.48857476       0.00286480       0.00090083       0.01109181
H        5.99935879       8.73479629       8.44013766      -0.00321804      -0.01085128      -0.00577775
H       10.62655811      10.50403594       8.46261703       0.00987723       0.00238513      -0.00345895
C        8.74034664       8.34677125       8.74064493      -0.00070509       0.00093539      -0.00388253
O       14.03621417      15.58224469       8.80928894      -0.00087322       0.00071551      -0.01225765
C       13.19792106      14.50635869       9.00505187       0.00034393       0.00508518       0.00122024
O        7.83204133       9.16482790       9.38212661       0.00390081      -0.00184544      -0.00125331
O        9.31974179      11.48625261       9.76692079      -0.00335736       0.01635078      -0.00914841
C       11.53497456      12.24886141       9.29765123      -0.00158290       0.00533160       0.00775941
C       10.93604519       7.31179815       8.82821645       0.00670840      -0.00350175      -0.01299783
H        8.77066562      10.67938100       9.88123716      -0.00588384       0.01684059      -0.00084940
C       10.63468143      11.03680798       9.43277853      -0.00537802       0.00898111      -0.00461764
C        9.99254708       8.18245027       9.38271031       0.00448188       0.00414722      -0.01157340
C       12.05449118      14.55974232       9.80267809       0.00128080       0.00229474       0.00690139
C       11.23035464      13.43850668       9.96138661       0.00108594       0.00643909       0.00536260
H       11.87546779       7.15366887       9.35715608       0.00796400       0.00001015      -0.01205165
H       12.75999837       9.23506902       9.31282228       0.00463908      -0.00606803       0.01789111
H       11.80742586      15.49482008      10.30722402       0.00279152       0.00728135       0.00349153
H       10.33380074      13.48999857      10.57518218      -0.00198270       0.01061955       0.00108907
O       10.22593720       8.86313756      10.57256477      -0.00583474      -0.00413936      -0.00228689
C       11.12798426      10.03938867      10.50421397      -0.00413295       0.00763677       0.00103287
C       12.57445403       9.56994356      10.34975987       0.00077763       0.00773117       0.01187143
H       10.98858944      10.49363306      11.49581461      -0.00582987      -0.00150383       0.00067799
H       13.24862004      10.41605726      10.54790772       0.00739594       0.00689337       0.00528082
O       12.88868219       8.53019319      11.28394227      -0.00804754       0.01104764       0.02273269
H       12.04610388       8.07000901      11.46539914       0.00538735       0.00573944       0.00181697
