11
Lattice="17.558 0.0 0.0 0.0 15.542 0.0 0.0 0.0 12.884" Properties=species:S:1:pos:R:3:forces:R:3 Furfural=T energy=-1707.8852463464 stress="0.00028994310360895 1.7184244141874e-05 5.2574065515906e-06 1.7184244141874e-05 0.0002290164561624 -1.0985678942025e-05 5.2574065515906e-06 -1.0985678942025e-05 0.00031023671925945" free_energy=-1707.8852463464 pbc="T T T"
C        7.06192068       8.29532863       6.55804084       0.00482928       0.00478635      -0.00836133
H        6.17011239       8.88668268       6.73124298       0.02224395       0.01452142      -0.00698363
C        7.27394023       6.94727724       6.38462965      -0.00423928      -0.00918981      -0.00379796
C        8.67373440       6.78434905       6.20264078       0.01115068      -0.01766869       0.00361028
C        9.23552559       8.04274448       6.27806985       0.01030165      -0.00698910       0.00096081
O        8.23656536       8.98565727       6.49391388       0.01095984      -0.00811442      -0.00348122
H        6.51274164       6.17402314       6.39211361       0.00152414       0.00807826      -0.00982816
H        9.23293549       5.86989901       6.03145950      -0.00601624      -0.01380653       0.01906595
C       10.60601812       8.52242590       6.19538139      -0.01885129       0.02191515       0.00317536
H       10.71847533       9.62589895       6.27302163      -0.02395233       0.00836198       0.01386653
O       11.57501585       7.77466469       6.05380245       0.01613991       0.00605665      -0.02140804
