12
Lattice="17.182000000000002 0.0 0.0 0.0 15.576 0.0 0.0 0.0 13.737" Properties=species:S:1:pos:R:3:forces:R:3 2MethylFuran=T energy=-1305.18632307 stress="0.00017886144585361 5.2925518614872e-06 7.1616117103378e-06 5.2925518614872e-06 0.00017812657748924 -9.0952288618103e-06 7.1616117103378e-06 -9.0952288618103e-06 0.00020338209226718" free_energy=-1305.18632307 pbc="T T T"
C        7.03707383       8.27791404       7.28354154      -0.01125254       0.00881225       0.00007336
H        6.15497252       8.87899822       7.45911636       0.00598979      -0.00053906       0.00668854
C        7.25185860       6.94309849       7.09150047       0.01411697       0.00545563      -0.00568485
C        8.66545311       6.78520021       6.90009080      -0.00945308      -0.00658792       0.00623990
C        9.22467977       8.03252771       6.99318183       0.01050037       0.01108094      -0.00053499
O        8.22986198       8.96588898       7.22716451      -0.00075234       0.00058878       0.00373778
H        6.49581173       6.16603114       7.09152197      -0.00322060      -0.00660901      -0.01951300
H        9.20282750       5.86174065       6.71434437       0.00646084      -0.00317811       0.01383527
C       10.61835222       8.55830750       6.91546019      -0.00596808       0.00123766      -0.00547260
H       11.24651401       8.16283444       7.72956101      -0.00500206       0.00160344      -0.00287563
H       11.09817014       8.29155649       5.96121840       0.00029734      -0.00856403      -0.00385662
H       10.61004563       9.65372591       6.99690291      -0.00117582       0.00055186      -0.00544033
