17
Lattice="18.336 0.0 0.0 0.0 15.452 0.0 0.0 0.0 14.889" Properties=species:S:1:pos:R:3:forces:R:3 Tetrahydrofurfurylalcohol=T energy=-1805.6613943464 stress="0.00025508449215078 4.5861003112017e-07 2.2037108842416e-06 4.5861003112017e-07 0.00025428026932702 1.3679096120374e-06 2.2037108842416e-06 1.3679096120374e-06 0.00027993135591572" free_energy=-1805.6613943464 pbc="T T T"
C        6.92297396       8.33561601       7.79289663       0.00091679       0.00292702      -0.00695848
H        6.56331896       8.28417443       8.83509454      -0.00315849       0.01009369      -0.00857913
C        7.16927807       6.90883185       7.22531493       0.00090045       0.00255710      -0.00197581
C        8.70781066       6.84755493       7.05623177      -0.00009019      -0.00228997       0.00408670
C        9.18778760       8.00622249       7.94082996       0.00158724      -0.00162525       0.00088988
O        8.18929414       9.02625952       7.74971105       0.00295695       0.00014338       0.00660280
H        6.81136666       6.14373211       7.92743548      -0.00415885       0.00562641      -0.00171261
H        9.14678358       5.88277753       7.34293749      -0.01135543      -0.00262852       0.01609742
C       10.54609679       8.59585379       7.58416484      -0.00404372      -0.00018585       0.00163448
H       10.57975404       8.81934429       6.50398425      -0.00141001       0.00593814       0.00285951
O       11.52980559       7.60816757       7.95453082       0.02142756       0.00597831      -0.01225104
H       12.41071992       7.98953189       7.80396597      -0.01410255      -0.00243720      -0.01203456
H       10.69072043       9.53968765       8.13615159      -0.00682280      -0.00477785       0.01135472
H        6.64744648       6.74835963       6.27292079       0.00854141      -0.00037537      -0.00545290
H        8.99471480       7.05453213       6.01538230       0.00511259      -0.01047010       0.00343886
H        9.20974747       7.68922329       8.99988399       0.00546806      -0.00715957       0.00132743
H        6.20906410       8.93377711       7.20965738       0.00142575      -0.00629630      -0.01664301
