22
Lattice="18.35734623 0.0 0.0 0.0 15.865887350000001 0.0 0.0 0.0 16.93525511" Properties=species:S:1:pos:R:3:forces:R:3 Energy:=T 6.2977885=T energy=-1741.0120288136 stress="0.00021512511202879 1.470035955549e-06 -3.7499129142774e-07 1.470035955549e-06 0.00021797734488623 1.8500938274972e-06 -3.7499129142774e-07 1.8500938274972e-06 0.00018661699751798" free_energy=-1741.0120288136 pbc="T T T"
C        7.96597292       7.10873183       7.08618007       0.00758948       0.00424405       0.00556402
C        6.86551089       6.55282375       7.74160282       0.00383211       0.00526576       0.01003280
C        6.88345426       6.43313843       9.13747900       0.00839077       0.00065159      -0.00965806
C        8.00291116       6.86917446       9.84895255       0.00846732       0.00036950      -0.00504311
C        9.11819587       7.42827341       9.19734288      -0.00509643       0.00243392      -0.01661142
C        9.09853384       7.55255305       7.79445896      -0.00321901      -0.00582249       0.01699037
C       10.28047361       8.12473559       7.02956957       0.00118811      -0.00514213       0.00761378
C       11.27761007       8.88873847       7.91507868      -0.01655645      -0.00336863       0.00837122
H        9.90889634       8.77137997       6.21802675       0.00195257      -0.00963258       0.00427552
H       10.80379154       7.29142393       6.52928679       0.00588590       0.00085179       0.00411372
C       11.58428426       8.08680908       9.18822323      -0.01277489      -0.00897684      -0.00777203
H       10.85520666       9.86588735       8.19601755      -0.00152801      -0.00023835      -0.00447332
H       12.19906813       9.09681661       7.34924672      -0.00652814       0.00506739       0.00597153
C       10.30473562       7.90356333      10.01830711      -0.00192511       0.00308924      -0.00744043
H       12.35734623       8.58745185       9.79167222      -0.00133540      -0.00441256      -0.00525346
H       11.99124617       7.10247487       8.90952015       0.00385684       0.00134288       0.00501743
H       10.03905536       8.86520132      10.49100216       0.00399044       0.00027318      -0.00062829
H       10.47659557       7.20043469      10.84928462      -0.00353849       0.00613529      -0.00496069
H        8.02479902       6.77444431      10.93525511      -0.00845720      -0.00960234       0.00341448
H        6.00000000       6.21626834       7.17097473       0.01155924       0.00780163       0.00563643
H        6.03338619       6.00000000       9.66452634       0.01207365       0.00711532      -0.00639310
H        7.95585012       7.20714000       6.00000000      -0.01071847      -0.00001623      -0.00396122
