16
Lattice="16.71622 0.0 0.0 0.0 14.16981 0.0 0.0 0.0 16.71608" Properties=species:S:1:pos:R:3:forces:R:3 Model1:=T Jmol=T 14.32.3=T 2021-12-08=T 13:29=T energy=-1067.2309458597 stress="0.00011073270768483 5.9868475389079e-07 -4.366709366775e-05 5.9868475389079e-07 0.0001496012063149 5.9847395346124e-07 -4.366709366775e-05 5.9847395346124e-07 0.00011073842277248" free_energy=-1067.2309458597 pbc="T T T"
C        6.60716027       6.65756131       6.60715962      -0.01057912       0.00937676      -0.01057799
C        7.50371398       7.52326535       7.50372740      -0.00068933       0.00939615      -0.00067642
H        5.95861374       6.00456979       7.20991806      -0.01509422      -0.00274363      -0.01928600
H        5.95785186       7.26322109       5.95784834      -0.00529935       0.00178847      -0.00530113
H        7.20992733       6.00457533       5.95861554      -0.01928255      -0.00274132      -0.01509572
H        6.88447922       8.18957690       8.12437605       0.00814301       0.00385623      -0.00171895
H        8.12435462       8.18959574       6.88450492      -0.00172476       0.00386232       0.00815009
C        8.40700332       6.67126691       8.40700348      -0.00032980      -0.02767357      -0.00033094
C        9.32767452       7.48571243       9.32778430       0.00284304       0.01053487       0.00284186
H        9.02498823       6.00358862       7.78374683      -0.00686889      -0.00616518       0.00315444
H        7.78376312       6.00349840       9.02490772       0.00315555      -0.00616785      -0.00687186
N       10.20415779       6.69106297      10.20417252       0.00606516       0.00713494       0.00607222
H        8.72581497       8.15145494       9.96609252       0.00122339      -0.00721770      -0.00415247
H        9.96590397       8.15161257       8.72601544      -0.00414707      -0.00722566       0.00122869
H       10.78577871       6.07229908       9.63323947       0.01409009       0.00403082       0.01769654
H        9.63330722       6.07209516      10.78565699       0.01767718       0.00404017       0.01410943
