11
Lattice="16.303 0.0 0.0 0.0 12.0 0.0 0.0 0.0 16.868000000000002" Properties=species:S:1:pos:R:3:forces:R:3 pyridine=T energy=-1124.0407799726 stress="0.00016858256389942 -1.9047988453523e-10 1.8230815980877e-05 -1.9047988453523e-10 0.00020943743841037 -1.4990488132328e-10 1.8230815980877e-05 -1.4990488132328e-10 0.00010646106931541" free_energy=-1124.0407799726 pbc="T T T"
N        6.95354895       5.99998808       7.67797607       0.01091713       0.00006902       0.00279657
C        6.96226502       5.99999940       9.02469296       0.00091832      -0.00003684       0.01641176
C        8.12937004       6.00000532       9.79756441       0.00123757      -0.00002552       0.02382900
C        9.36543124       5.99999833       9.14466656      -0.00823242       0.00003469       0.00285275
C        9.37803720       6.00000032       7.74685847       0.00801235       0.00000096      -0.00365565
C        8.15405000       5.99999901       7.06734288       0.01196476      -0.00003412      -0.01679684
H        5.98206098       5.99999827       9.50668148      -0.01360008      -0.00000173       0.00607916
H        8.06564067       6.00000764      10.88590565       0.00015943       0.00000858      -0.00011050
H       10.29713379       5.99999894       9.71169008      -0.00561713      -0.00000663      -0.00194117
H       10.31519725       6.00000142       7.18899879      -0.01230223       0.00000285       0.01017587
H        8.13067282       6.00000313       5.97562457       0.00160663      -0.00001240      -0.02654977
