5
	Energy:      -1.1221562
C         -0.72236        0.59066        0.01359
O          0.58298        0.58522        0.04616
O         -1.34872        0.76187       -1.01086
H          0.85105        0.43105        0.96865
H         -1.55308        0.47168        0.72554
