5
Lattice="14.40413 0.0 0.0 0.0 12.33082 0.0 0.0 0.0 13.97951" Properties=species:S:1:pos:R:3:forces:R:3 Energy:=T -1.1221562=T energy=-1058.0778965314 stress="0.00028398100258406 2.6183029553346e-06 -1.2975503226753e-05 2.6183029553346e-06 0.00029713063110999 1.0921756698643e-05 -1.2975503226753e-05 1.0921756698643e-05 0.00022981062334526" free_energy=-1058.0778965314 pbc="T T T"
C        6.73732136       6.17261984       6.94100323       0.00246074      -0.00192388      -0.00242298
O        8.10424644       6.14200615       7.08078228      -0.02343729      -0.01376342       0.00217497
O        6.21202601       6.35531090       5.86847648       0.00355619       0.00291438      -0.00376620
H        8.32468930       5.99038159       8.02049125      -0.01003600      -0.00898302      -0.00186229
H        6.18974399       6.01550122       7.88899290       0.02072623       0.00087908       0.00765113
