6
Lattice="14.162408 0.0 0.0 0.0 13.822271480000001 0.0 0.0 0.0 13.66124163" Properties=species:S:1:pos:R:3:forces:R:3 Energy:=T 2.1934257=T energy=-654.62780848709 stress="0.00013569221157998 1.8904947158514e-05 5.2169663747692e-06 1.8904947158514e-05 0.00014682621588551 -1.1117522296379e-05 5.2169663747692e-06 -1.1117522296379e-05 0.00016459107275604" free_energy=-654.62780848709 pbc="T T T"
C        6.42299835       6.84850500       7.01815690      -0.01249558      -0.00239308      -0.00288516
O        7.85951273       6.85520830       7.03007360      -0.00993154      -0.00953179      -0.01226361
H        6.00000000       6.05777185       7.66124163       0.00664804       0.01787416      -0.01592182
H        6.01194221       6.73952720       6.00000000      -0.00047951       0.00179161       0.02281394
H        6.10461674       7.82227148       7.41570415      -0.01248833       0.00121793      -0.00034054
H        8.16240800       6.00000000       6.68355221       0.02645896      -0.00422817      -0.00379167
