3
Lattice="13.5506 0.0 0.0 0.0 13.07416 0.0 0.0 0.0 12.22129" Properties=species:S:1:pos:R:3:forces:R:3 energy=-468.05205877257 stress="0.00012773518073256 -2.878831893035e-06 -5.6251261333496e-07 -2.878831893035e-06 0.0001477751796967 -4.7712009762235e-06 -5.6251261333496e-07 -4.7712009762235e-06 0.00016315822960114" free_energy=-468.05205877257 pbc="T T T"
O        6.43879420       6.07227341       6.00918413      -0.00614481      -0.00135888      -0.02548167
H        7.40951887       6.11404151       6.02351348      -0.01424006       0.01454627       0.00309350
H        6.15699889       6.98175751       6.20283205       0.01816516      -0.00843666       0.00041009
