4
Lattice="13.63440439 0.0 0.0 0.0 13.42165868 0.0 0.0 0.0 12.39467804" Properties=species:S:1:pos:R:3:forces:R:3 ammonia=T energy=-319.06348009941 stress="7.6635835958215e-05 2.0602766327895e-06 -3.8353485806889e-07 2.0602766327895e-06 8.738202880054e-05 1.6958282530472e-07 -3.8353485806889e-07 1.6958282530472e-07 0.0001071878703618" free_energy=-319.06348009941 pbc="T T T"
N        6.81341997       6.47853540       6.39497274       0.00181982       0.00256338       0.01820539
H        6.80740124       7.42176470       5.99993364      -0.00404274       0.00451584      -0.00398849
H        7.63447956       6.01218612       6.00202571       0.00041072      -0.00510092      -0.00225512
H        5.99993697       5.99995770       6.00082484       0.00145274       0.00061647      -0.00330194
