35
Lattice="25.1994 0.0 0.0 0.0 17.5913 0.0 0.0 0.0 15.42367" Properties=species:S:1:pos:R:3:forces:R:3 Energy:=T 52.3465118=T energy=-4320.1142964492 stress="0.00036191538734992 -1.508580250304e-05 3.9409445746105e-07 -1.508580250304e-05 0.00037224105276197 -3.3308102617708e-05 3.9409445746105e-07 -3.3308102617708e-05 0.00034298888242313" free_energy=-4320.1142964492 pbc="T T T"
C        8.11309890      10.07251395       7.51486861       0.00015327       0.00043689       0.00770082
C        9.47620798      10.35055834       7.58471592       0.00437507      -0.00629723       0.00614523
C       10.44800777       9.39020075       7.24694035       0.00105163       0.00936865       0.00245310
C       10.00372734       8.13579006       6.80960301       0.00631170      -0.00078413      -0.01182643
C        8.63696151       7.83046879       6.75513460       0.00713440       0.00732510      -0.01077598
C        7.68944857       8.79728326       7.11491906       0.00809537      -0.01233803      -0.00786913
H        7.36678168      10.82228738       7.77294825       0.00148626      -0.01376051       0.01543334
H        9.80513362      11.34174311       7.89831873      -0.00198079      -0.00209596       0.01480399
H       10.71852650       7.36968931       6.51003158       0.00919097       0.01107316      -0.01542375
H        8.30661149       6.84145084       6.43610318       0.01312448      -0.00164074      -0.01764029
C       11.89904817       9.81311136       7.36383534       0.00068195       0.00250046      -0.00086688
C       12.97286316       8.69944684       7.38777129      -0.00048173       0.00194874       0.01350586
O       12.16728227      10.73006056       6.28373981      -0.00065980      -0.01757825      -0.01625472
H       12.00788682      10.34827454       8.32633221      -0.00296613       0.01832453      -0.00833243
H       13.10045749      10.99714969       6.39589475       0.00115148      -0.02097831      -0.02117742
O       14.19590506       9.47551542       7.52742318       0.00012108       0.00113912       0.00983685
C       15.44859767       8.96867447       7.22916845      -0.00469112      -0.01169605      -0.00099338
C       16.51344180       9.79053975       7.63477225       0.00314950       0.00220834       0.00874047
C       17.83144920       9.39125395       7.40924339      -0.00191617      -0.00957181      -0.00603379
C       15.71117525       7.76338532       6.56620855      -0.00084851       0.00955320       0.00150529
C       17.03954478       7.37245651       6.35095625      -0.01099588      -0.00167515      -0.01437203
C       18.10464826       8.17227066       6.77546763       0.00116693       0.01050877      -0.00854776
H       14.89895458       7.12023170       6.24023997      -0.00775328       0.00130297      -0.00219602
H       16.28407855      10.73039656       8.13497968       0.00098635      -0.01024974       0.00985002
H       18.64772588      10.03340920       7.73902952       0.00142568      -0.00372739      -0.00000186
H       17.23796758       6.42286914       5.85473297      -0.00858162       0.00857686      -0.01595169
H       19.13299474       7.84993652       6.61973943      -0.00418099       0.00405817      -0.02207814
C       12.79096569       7.74693590       8.57866358      -0.00366702       0.00864488       0.01584407
H       12.97476616       8.16485635       6.42297619      -0.00625780      -0.00446107       0.01810240
O       13.68324685       6.62416549       8.59193094      -0.01009367       0.00264856       0.01597629
H       11.73973821       7.42183785       8.62932039      -0.00558911       0.01551072       0.01486500
H       13.00891367       8.30810341       9.49848921       0.00118837       0.00898781       0.01452437
H       13.41226714       6.00798893       7.89103395      -0.02009673       0.00533791       0.01409000
O        6.33139384       8.56037375       7.10096889       0.00643317      -0.00115648      -0.00173199
H        6.17280528       7.64782923       6.80069260       0.00439510      -0.00353845      -0.00660926
